<?xml version="1.0" encoding="UTF-8"?>

<!-- generated on 2025-07-15 10:54:22 by Eclipse SUMO GUI Version 1.23.1
<sumoConfiguration xmlns:xsi="http://www.w3.org/2001/XMLSchema-instance" xsi:noNamespaceSchemaLocation="http://sumo.dlr.de/xsd/sumoConfiguration.xsd">

    <input>
        <net-file value="/home/naeem/Documents/nassim/Security-agent-in-VANETs-AI-Based-Intrusion-Detection-main/Nassmcp/luxembourg/lust.net.xml"/>
        <route-files value="/home/naeem/Documents/nassim/Security-agent-in-VANETs-AI-Based-Intrusion-Detection-main/Nassmcp/luxembourg/buslines.rou.xml,/home/naeem/Documents/nassim/Security-agent-in-VANETs-AI-Based-Intrusion-Detection-main/Nassmcp/luxembourg/DUARoutes/local.0.rou.xml,/home/naeem/Documents/nassim/Security-agent-in-VANETs-AI-Based-Intrusion-Detection-main/Nassmcp/luxembourg/DUARoutes/local.1.rou.xml,/home/naeem/Documents/nassim/Security-agent-in-VANETs-AI-Based-Intrusion-Detection-main/Nassmcp/luxembourg/DUARoutes/local.2.rou.xml,/home/naeem/Documents/nassim/Security-agent-in-VANETs-AI-Based-Intrusion-Detection-main/Nassmcp/luxembourg/transit.rou.xml"/>
        <additional-files value="/home/naeem/Documents/nassim/Security-agent-in-VANETs-AI-Based-Intrusion-Detection-main/Nassmcp/luxembourg/vtypes.add.xml,/home/naeem/Documents/nassim/Security-agent-in-VANETs-AI-Based-Intrusion-Detection-main/Nassmcp/luxembourg/busstops.add.xml,/home/naeem/Documents/nassim/Security-agent-in-VANETs-AI-Based-Intrusion-Detection-main/Nassmcp/luxembourg/e1detectors.add.xml,/home/naeem/Documents/nassim/Security-agent-in-VANETs-AI-Based-Intrusion-Detection-main/Nassmcp/luxembourg/lust.poly.xml,/home/naeem/Documents/nassim/Security-agent-in-VANETs-AI-Based-Intrusion-Detection-main/Nassmcp/luxembourg/tll.static.xml"/>
    </input>

    <output>
        <summary-output value="/home/naeem/Documents/nassim/Security-agent-in-VANETs-AI-Based-Intrusion-Detection-main/Nassmcp/luxembourg/dua.static.summary.xml"/>
        <tripinfo-output value="/home/naeem/Documents/nassim/Security-agent-in-VANETs-AI-Based-Intrusion-Detection-main/Nassmcp/luxembourg/dua.static.tripinfo.xml"/>
    </output>

    <time>
        <begin value="0"/>
        <step-length value="0.05"/>
    </time>

    <processing>
        <lateral-resolution value="0.1"/>
        <ignore-junction-blocker value="20"/>
        <time-to-teleport value="600"/>
        <max-depart-delay value="600"/>
    </processing>

    <routing>
        <routing-algorithm value="dijkstra"/>
        <device.rerouting.probability value="0.70"/>
        <device.rerouting.period value="300"/>
        <device.rerouting.pre-period value="300"/>
    </routing>

    <report>
        <verbose value="true"/>
        <log value="/home/naeem/Documents/nassim/Security-agent-in-VANETs-AI-Based-Intrusion-Detection-main/Nassmcp/luxembourg/dua.static.log"/>
    </report>

    <traci_server>
        <remote-port value="55001"/>
    </traci_server>

    <gui_only>
        <delay value="1000"/>
    </gui_only>

</sumoConfiguration>
-->

<tripinfos xmlns:xsi="http://www.w3.org/2001/XMLSchema-instance" xsi:noNamespaceSchemaLocation="http://sumo.dlr.de/xsd/tripinfo_file.xsd">
    <tripinfo id="randUni834:1" depart="5.00" departLane="--32406#3_0" departPos="60.77" departPosLat="0.00" departSpeed="0.00" departDelay="0.00" arrival="34.00" arrivalLane="--31212_0" arrivalPos="75.07" arrivalPosLat="0.00" arrivalSpeed="0.93" duration="29.00" routeLength="342.70" waitingTime="0.00" waitingCount="0" stopTime="0.00" timeLoss="4.59" rerouteNo="0" devices="tripinfo_randUni834:1 routing_randUni834:1" vType="passenger2b" speedFactor="1.01" vaporized=""/>
    <tripinfo id="randUni16882:1" depart="14.00" departLane="-32340#7_0" departPos="176.31" departPosLat="0.00" departSpeed="0.00" departDelay="0.00" arrival="98.90" arrivalLane="-32660_0" arrivalPos="5.02" arrivalPosLat="0.00" arrivalSpeed="1.04" duration="84.90" routeLength="1081.02" waitingTime="0.00" waitingCount="0" stopTime="0.00" timeLoss="7.87" rerouteNo="0" devices="tripinfo_randUni16882:1 routing_randUni16882:1" vType="passenger1" speedFactor="1.01" vaporized=""/>
    <tripinfo id="randUni11317:1" depart="11.00" departLane="--31490_0" departPos="43.97" departPosLat="0.00" departSpeed="0.00" departDelay="0.00" arrival="122.95" arrivalLane="-31290#1_0" arrivalPos="1.61" arrivalPosLat="0.00" arrivalSpeed="0.93" duration="111.95" routeLength="1632.98" waitingTime="0.00" waitingCount="0" stopTime="0.00" timeLoss="11.34" rerouteNo="1" devices="tripinfo_randUni11317:1 routing_randUni11317:1" vType="passenger2a" speedFactor="1.16" vaporized=""/>
    <tripinfo id="randUni18368:1" depart="0.00" departLane="-31606#0_0" departPos="177.47" departPosLat="0.00" departSpeed="0.00" departDelay="0.00" arrival="241.05" arrivalLane="-30496#4_1" arrivalPos="97.49" arrivalPosLat="-0.00" arrivalSpeed="0.89" duration="241.05" routeLength="2882.13" waitingTime="7.80" waitingCount="1" stopTime="0.00" timeLoss="21.68" rerouteNo="0" devices="tripinfo_randUni18368:1" vType="passenger2a" speedFactor="0.94" vaporized=""/>
    <tripinfo id="NBSKMS_Nightbus_1" depart="39.00" departLane="--32278#5_0" departPos="0.00" departPosLat="0.00" departSpeed="0.00" departDelay="0.00" arrival="269.30" arrivalLane="--32278#1_0" arrivalPos="139.07" arrivalPosLat="0.00" arrivalSpeed="15.57" duration="230.30" routeLength="1910.02" waitingTime="16.75" waitingCount="2" stopTime="60.00" timeLoss="47.80" rerouteNo="0" devices="tripinfo_NBSKMS_Nightbus_1" vType="bus" speedFactor="1.12" vaporized=""/>
    <tripinfo id="NBSKMS_Nightbus_0" depart="39.00" departLane="-32278#1_0" departPos="0.00" departPosLat="0.00" departSpeed="0.00" departDelay="0.00" arrival="271.25" arrivalLane="-32278#5_0" arrivalPos="841.44" arrivalPosLat="0.00" arrivalSpeed="14.52" duration="232.25" routeLength="1905.19" waitingTime="12.00" waitingCount="2" stopTime="60.00" timeLoss="41.25" rerouteNo="0" devices="tripinfo_NBSKMS_Nightbus_0" vType="bus" speedFactor="1.05" vaporized=""/>
    <tripinfo id="0FRtoLU.0" depart="42.00" departLane="-32426#0_0" departPos="5.10" departPosLat="0.00" departSpeed="13.89" departDelay="0.00" arrival="282.20" arrivalLane="-32400#5_0" arrivalPos="257.03" arrivalPosLat="-0.00" arrivalSpeed="37.64" duration="240.20" routeLength="6507.94" waitingTime="0.00" waitingCount="0" stopTime="0.00" timeLoss="9.91" rerouteNo="0" devices="tripinfo_0FRtoLU.0 routing_0FRtoLU.0" vType="passenger1" speedFactor="1.04" vaporized=""/>
    <tripinfo id="randUni13606:1" depart="27.00" departLane="--32244_0" departPos="235.15" departPosLat="0.00" departSpeed="0.00" departDelay="0.00" arrival="307.85" arrivalLane="-31068#1_0" arrivalPos="104.52" arrivalPosLat="0.00" arrivalSpeed="0.94" duration="280.85" routeLength="2599.27" waitingTime="49.70" waitingCount="3" stopTime="0.00" timeLoss="74.87" rerouteNo="0" devices="tripinfo_randUni13606:1 routing_randUni13606:1" vType="passenger4" speedFactor="0.89" vaporized=""/>
    <tripinfo id="randUni3742:1" depart="283.00" departLane="--32124#1_0" departPos="216.04" departPosLat="0.00" departSpeed="0.00" departDelay="0.00" arrival="310.20" arrivalLane="--31894#2_0" arrivalPos="10.99" arrivalPosLat="0.00" arrivalSpeed="1.02" duration="27.20" routeLength="270.89" waitingTime="0.00" waitingCount="0" stopTime="0.00" timeLoss="7.90" rerouteNo="0" devices="tripinfo_randUni3742:1 routing_randUni3742:1" vType="passenger2a" speedFactor="0.94" vaporized=""/>
    <tripinfo id="0FRtoLU.1" depart="63.00" departLane="-32426#0_0" departPos="5.10" departPosLat="0.00" departSpeed="13.89" departDelay="0.00" arrival="337.90" arrivalLane="-32400#5_0" arrivalPos="257.03" arrivalPosLat="-0.00" arrivalSpeed="32.51" duration="274.90" routeLength="6507.94" waitingTime="0.00" waitingCount="0" stopTime="0.00" timeLoss="8.03" rerouteNo="0" devices="tripinfo_0FRtoLU.1" vType="passenger1" speedFactor="0.90" vaporized=""/>
    <tripinfo id="0FRtoLU.2" depart="119.00" departLane="-32426#0_0" departPos="6.10" departPosLat="0.00" departSpeed="13.89" departDelay="0.00" arrival="338.95" arrivalLane="-32400#5_0" arrivalPos="257.03" arrivalPosLat="-0.00" arrivalSpeed="34.04" duration="219.95" routeLength="6506.94" waitingTime="0.00" waitingCount="0" stopTime="0.00" timeLoss="14.42" rerouteNo="0" devices="tripinfo_0FRtoLU.2 routing_0FRtoLU.2" vType="passenger3" speedFactor="1.17" vaporized=""/>
    <tripinfo id="randUni19500:1" depart="198.00" departLane="-31230#5_0" departPos="24.53" departPosLat="0.00" departSpeed="0.00" departDelay="0.00" arrival="357.75" arrivalLane="--30968#1_0" arrivalPos="19.30" arrivalPosLat="0.00" arrivalSpeed="0.85" duration="159.75" routeLength="2094.54" waitingTime="1.60" waitingCount="1" stopTime="0.00" timeLoss="24.24" rerouteNo="1" devices="tripinfo_randUni19500:1 routing_randUni19500:1" vType="passenger2b" speedFactor="1.10" vaporized=""/>
    <tripinfo id="randUni10908:1" depart="127.00" departLane="-31302_0" departPos="6.98" departPosLat="0.00" departSpeed="0.00" departDelay="0.00" arrival="358.40" arrivalLane="--32160#3_0" arrivalPos="32.43" arrivalPosLat="-0.00" arrivalSpeed="0.87" duration="231.40" routeLength="3141.93" waitingTime="8.55" waitingCount="2" stopTime="0.00" timeLoss="38.37" rerouteNo="1" devices="tripinfo_randUni10908:1 routing_randUni10908:1" vType="passenger2b" speedFactor="1.17" vaporized=""/>
    <tripinfo id="0DEtoLU.0" depart="15.00" departLane="-31622#0_0" departPos="4.60" departPosLat="0.00" departSpeed="13.89" departDelay="0.00" arrival="361.40" arrivalLane="-32400#5_1" arrivalPos="257.03" arrivalPosLat="-0.00" arrivalSpeed="37.47" duration="346.40" routeLength="11354.22" waitingTime="0.00" waitingCount="0" stopTime="0.00" timeLoss="6.27" rerouteNo="0" devices="tripinfo_0DEtoLU.0 routing_0DEtoLU.0" vType="passenger2a" speedFactor="1.04" vaporized=""/>
    <tripinfo id="0LUtoDE.0" depart="45.00" departLane="-30706#0_0" departPos="5.10" departPosLat="0.00" departSpeed="13.89" departDelay="0.00" arrival="373.65" arrivalLane="-30668#16_1" arrivalPos="272.49" arrivalPosLat="-0.00" arrivalSpeed="36.00" duration="328.65" routeLength="10511.80" waitingTime="0.00" waitingCount="0" stopTime="0.00" timeLoss="6.53" rerouteNo="0" devices="tripinfo_0LUtoDE.0 routing_0LUtoDE.0" vType="passenger1" speedFactor="1.00" vaporized=""/>
    <tripinfo id="0DEtoLU.1" depart="43.00" departLane="-31622#0_0" departPos="6.10" departPosLat="0.00" departSpeed="13.89" departDelay="0.00" arrival="375.20" arrivalLane="-32400#5_1" arrivalPos="257.03" arrivalPosLat="-0.00" arrivalSpeed="39.29" duration="332.20" routeLength="11352.72" waitingTime="0.00" waitingCount="0" stopTime="0.00" timeLoss="7.82" rerouteNo="0" devices="tripinfo_0DEtoLU.1 routing_0DEtoLU.1" vType="passenger3" speedFactor="1.09" vaporized=""/>
    <tripinfo id="0FRtoLU.3" depart="129.00" departLane="-32426#0_0" departPos="5.10" departPosLat="0.00" departSpeed="13.89" departDelay="0.00" arrival="377.75" arrivalLane="-32400#5_0" arrivalPos="257.03" arrivalPosLat="-0.00" arrivalSpeed="36.20" duration="248.75" routeLength="6507.94" waitingTime="0.00" waitingCount="0" stopTime="0.00" timeLoss="9.22" rerouteNo="0" devices="tripinfo_0FRtoLU.3" vType="passenger1" speedFactor="1.00" vaporized=""/>
    <tripinfo id="0BEtoFR.1" depart="145.00" departLane="-30668#0_0" departPos="4.60" departPosLat="0.00" departSpeed="13.89" departDelay="0.00" arrival="395.35" arrivalLane="-31366#3_2" arrivalPos="20.69" arrivalPosLat="0.00" arrivalSpeed="41.20" duration="250.35" routeLength="9435.52" waitingTime="0.00" waitingCount="0" stopTime="0.00" timeLoss="6.89" rerouteNo="0" devices="tripinfo_0BEtoFR.1 routing_0BEtoFR.1" vType="passenger2a" speedFactor="1.14" vaporized=""/>
    <tripinfo id="randUni1024:1" depart="139.00" departLane="-32924#6_0" departPos="8.20" departPosLat="0.00" departSpeed="0.00" departDelay="0.00" arrival="401.40" arrivalLane="-32392#1_0" arrivalPos="3.73" arrivalPosLat="0.00" arrivalSpeed="0.86" duration="262.40" routeLength="3452.22" waitingTime="5.40" waitingCount="2" stopTime="0.00" timeLoss="32.74" rerouteNo="0" devices="tripinfo_randUni1024:1" vType="passenger2b" speedFactor="0.99" vaporized=""/>
    <tripinfo id="0LUtoBE.0" depart="12.00" departLane="-30706#0_0" departPos="4.60" departPosLat="0.00" departSpeed="13.89" departDelay="0.00" arrival="406.20" arrivalLane="-31622#16_1" arrivalPos="305.81" arrivalPosLat="-0.00" arrivalSpeed="34.54" duration="394.20" routeLength="11318.23" waitingTime="0.00" waitingCount="0" stopTime="0.00" timeLoss="8.12" rerouteNo="0" devices="tripinfo_0LUtoBE.0" vType="passenger2a" speedFactor="0.96" vaporized=""/>
    <tripinfo id="0LUtoDE.1" depart="122.00" departLane="-30706#0_0" departPos="4.60" departPosLat="0.00" departSpeed="13.89" departDelay="0.00" arrival="422.30" arrivalLane="-30668#16_2" arrivalPos="272.49" arrivalPosLat="0.00" arrivalSpeed="39.51" duration="300.30" routeLength="10512.30" waitingTime="0.00" waitingCount="0" stopTime="0.00" timeLoss="7.13" rerouteNo="0" devices="tripinfo_0LUtoDE.1" vType="passenger2b" speedFactor="1.10" vaporized=""/>
    <tripinfo id="randUni8397:1" depart="348.00" departLane="--30528#29_0" departPos="4.13" departPosLat="0.00" departSpeed="0.00" departDelay="0.00" arrival="429.85" arrivalLane="--30778#0_0" arrivalPos="32.18" arrivalPosLat="0.00" arrivalSpeed="0.96" duration="81.85" routeLength="954.10" waitingTime="0.00" waitingCount="0" stopTime="0.00" timeLoss="13.66" rerouteNo="0" devices="tripinfo_randUni8397:1" vType="passenger1" speedFactor="1.01" vaporized=""/>
    <tripinfo id="0BEtoFR.0" depart="96.00" departLane="-30668#0_0" departPos="7.10" departPosLat="0.00" departSpeed="13.89" departDelay="0.00" arrival="433.30" arrivalLane="-31366#3_1" arrivalPos="20.69" arrivalPosLat="-0.00" arrivalSpeed="29.95" duration="337.30" routeLength="9433.02" waitingTime="0.00" waitingCount="0" stopTime="0.00" timeLoss="4.95" rerouteNo="0" devices="tripinfo_0BEtoFR.0 routing_0BEtoFR.0" vType="passenger5" speedFactor="0.88" vaporized=""/>
    <tripinfo id="0FRtoLU.4" depart="192.00" departLane="-32426#0_0" departPos="4.60" departPosLat="0.00" departSpeed="13.89" departDelay="0.00" arrival="443.80" arrivalLane="-32400#5_0" arrivalPos="257.03" arrivalPosLat="-0.00" arrivalSpeed="35.59" duration="251.80" routeLength="6508.44" waitingTime="0.00" waitingCount="0" stopTime="0.00" timeLoss="8.33" rerouteNo="0" devices="tripinfo_0FRtoLU.4 routing_0FRtoLU.4" vType="passenger2a" speedFactor="0.99" vaporized=""/>
    <tripinfo id="0DEtoFR.2" depart="14.00" departLane="-31622#0_0" departPos="5.10" departPosLat="0.00" departSpeed="13.89" departDelay="0.00" arrival="450.20" arrivalLane="-31366#3_1" arrivalPos="20.69" arrivalPosLat="-0.00" arrivalSpeed="39.40" duration="436.20" routeLength="15900.65" waitingTime="0.00" waitingCount="0" stopTime="0.00" timeLoss="7.52" rerouteNo="0" devices="tripinfo_0DEtoFR.2 routing_0DEtoFR.2" vType="passenger1" speedFactor="1.09" vaporized=""/>
    <tripinfo id="randUni2416:1" depart="301.00" departLane="--32280#0_0" departPos="122.77" departPosLat="0.00" departSpeed="0.00" departDelay="0.00" arrival="454.15" arrivalLane="-31904#2_0" arrivalPos="30.50" arrivalPosLat="-0.00" arrivalSpeed="0.95" duration="153.15" routeLength="1952.97" waitingTime="0.00" waitingCount="0" stopTime="0.00" timeLoss="11.97" rerouteNo="1" devices="tripinfo_randUni2416:1 routing_randUni2416:1" vType="passenger5" speedFactor="0.98" vaporized=""/>
    <tripinfo id="0FRtoBE.0" depart="96.00" departLane="-32426#0_0" departPos="4.60" departPosLat="0.00" departSpeed="13.89" departDelay="0.00" arrival="454.60" arrivalLane="-31622#16_1" arrivalPos="305.81" arrivalPosLat="-0.00" arrivalSpeed="30.69" duration="358.60" routeLength="9592.32" waitingTime="0.00" waitingCount="0" stopTime="0.00" timeLoss="7.04" rerouteNo="0" devices="tripinfo_0FRtoBE.0 routing_0FRtoBE.0" vType="passenger2b" speedFactor="0.85" vaporized=""/>
    <tripinfo id="0DEtoFR.1" depart="8.00" departLane="-31622#0_0" departPos="4.60" departPosLat="0.00" departSpeed="13.89" departDelay="0.00" arrival="462.35" arrivalLane="-31366#3_1" arrivalPos="20.69" arrivalPosLat="-0.00" arrivalSpeed="37.74" duration="454.35" routeLength="15901.15" waitingTime="0.00" waitingCount="0" stopTime="0.00" timeLoss="6.73" rerouteNo="0" devices="tripinfo_0DEtoFR.1" vType="passenger2b" speedFactor="1.05" vaporized=""/>
    <tripinfo id="0LUtoDE.2" depart="205.00" departLane="-30706#0_0" departPos="4.60" departPosLat="0.00" departSpeed="13.89" departDelay="0.00" arrival="492.60" arrivalLane="-30668#16_2" arrivalPos="272.49" arrivalPosLat="0.00" arrivalSpeed="41.38" duration="287.60" routeLength="10512.30" waitingTime="0.00" waitingCount="0" stopTime="0.00" timeLoss="7.69" rerouteNo="0" devices="tripinfo_0LUtoDE.2 routing_0LUtoDE.2" vType="passenger2b" speedFactor="1.15" vaporized=""/>
    <tripinfo id="0FRtoBE.1" depart="190.00" departLane="-32426#0_0" departPos="4.60" departPosLat="0.00" departSpeed="13.89" departDelay="0.00" arrival="493.80" arrivalLane="-31622#16_2" arrivalPos="305.81" arrivalPosLat="-0.00" arrivalSpeed="36.62" duration="303.80" routeLength="9592.32" waitingTime="0.00" waitingCount="0" stopTime="0.00" timeLoss="9.44" rerouteNo="0" devices="tripinfo_0FRtoBE.1 routing_0FRtoBE.1" vType="passenger2b" speedFactor="1.02" vaporized=""/>
    <tripinfo id="0BEtoFR.2" depart="215.00" departLane="-30668#0_0" departPos="4.60" departPosLat="0.00" departSpeed="13.89" departDelay="0.00" arrival="506.95" arrivalLane="-31366#3_1" arrivalPos="20.69" arrivalPosLat="-0.00" arrivalSpeed="35.23" duration="291.95" routeLength="9435.52" waitingTime="0.00" waitingCount="0" stopTime="0.00" timeLoss="6.96" rerouteNo="0" devices="tripinfo_0BEtoFR.2 routing_0BEtoFR.2" vType="passenger2b" speedFactor="0.98" vaporized=""/>
    <tripinfo id="0LUtoBE.1" depart="133.00" departLane="-30706#0_0" departPos="5.10" departPosLat="0.00" departSpeed="13.89" departDelay="0.00" arrival="513.70" arrivalLane="-31622#16_2" arrivalPos="305.81" arrivalPosLat="-0.00" arrivalSpeed="35.91" duration="380.70" routeLength="11317.73" waitingTime="0.00" waitingCount="0" stopTime="0.00" timeLoss="9.68" rerouteNo="0" devices="tripinfo_0LUtoBE.1 routing_0LUtoBE.1" vType="passenger1" speedFactor="1.00" vaporized=""/>
    <tripinfo id="0BEtoFR.3" depart="239.00" departLane="-30668#0_0" departPos="4.60" departPosLat="0.00" departSpeed="13.89" departDelay="0.00" arrival="520.20" arrivalLane="-31366#3_1" arrivalPos="20.69" arrivalPosLat="-0.00" arrivalSpeed="36.67" duration="281.20" routeLength="9435.52" waitingTime="0.00" waitingCount="0" stopTime="0.00" timeLoss="7.65" rerouteNo="0" devices="tripinfo_0BEtoFR.3 routing_0BEtoFR.3" vType="passenger2a" speedFactor="1.02" vaporized=""/>
    <tripinfo id="0FRtoLU.5" depart="243.00" departLane="-32426#0_0" departPos="5.10" departPosLat="0.00" departSpeed="13.89" departDelay="0.00" arrival="520.45" arrivalLane="-32400#5_0" arrivalPos="257.03" arrivalPosLat="-0.00" arrivalSpeed="32.17" duration="277.45" routeLength="6507.94" waitingTime="0.00" waitingCount="0" stopTime="0.00" timeLoss="7.99" rerouteNo="0" devices="tripinfo_0FRtoLU.5" vType="passenger1" speedFactor="0.89" vaporized=""/>
    <tripinfo id="0DEtoLU.2" depart="160.00" departLane="-31622#0_0" departPos="5.10" departPosLat="0.00" departSpeed="13.89" departDelay="0.00" arrival="532.55" arrivalLane="-32400#5_1" arrivalPos="257.03" arrivalPosLat="-0.00" arrivalSpeed="34.97" duration="372.55" routeLength="11353.72" waitingTime="0.00" waitingCount="0" stopTime="0.00" timeLoss="8.49" rerouteNo="0" devices="tripinfo_0DEtoLU.2" vType="passenger1" speedFactor="0.97" vaporized=""/>
    <tripinfo id="randUni18438:1" depart="110.00" departLane="-31146#0_0" departPos="38.98" departPosLat="0.00" departSpeed="0.00" departDelay="0.00" arrival="538.45" arrivalLane="-31892#0_0" arrivalPos="25.17" arrivalPosLat="0.00" arrivalSpeed="0.99" duration="428.45" routeLength="6561.15" waitingTime="14.65" waitingCount="4" stopTime="0.00" timeLoss="57.05" rerouteNo="1" devices="tripinfo_randUni18438:1 routing_randUni18438:1" vType="passenger1" speedFactor="1.15" vaporized=""/>
    <tripinfo id="randUni7357:1" depart="102.00" departLane="-30988#3_0" departPos="92.43" departPosLat="0.00" departSpeed="0.00" departDelay="0.00" arrival="539.55" arrivalLane="-32190_0" arrivalPos="380.12" arrivalPosLat="0.00" arrivalSpeed="0.99" duration="437.55" routeLength="5235.39" waitingTime="17.00" waitingCount="4" stopTime="0.00" timeLoss="41.47" rerouteNo="0" devices="tripinfo_randUni7357:1 routing_randUni7357:1" vType="passenger1" speedFactor="0.93" vaporized=""/>
    <tripinfo id="0FRtoLU.6" depart="272.00" departLane="-32426#0_0" departPos="4.60" departPosLat="0.00" departSpeed="13.89" departDelay="0.00" arrival="544.75" arrivalLane="-32400#5_0" arrivalPos="257.03" arrivalPosLat="-0.00" arrivalSpeed="32.68" duration="272.75" routeLength="6508.44" waitingTime="0.00" waitingCount="0" stopTime="0.00" timeLoss="7.67" rerouteNo="0" devices="tripinfo_0FRtoLU.6" vType="passenger2b" speedFactor="0.91" vaporized=""/>
    <tripinfo id="0LUtoFR.0" depart="235.00" departLane="-30706#0_0" departPos="5.10" departPosLat="0.00" departSpeed="13.89" departDelay="0.00" arrival="556.05" arrivalLane="-31366#3_2" arrivalPos="20.69" arrivalPosLat="0.00" arrivalSpeed="37.60" duration="321.05" routeLength="8111.00" waitingTime="0.00" waitingCount="0" stopTime="0.00" timeLoss="25.26" rerouteNo="0" devices="tripinfo_0LUtoFR.0" vType="passenger1" speedFactor="1.04" vaporized=""/>
    <tripinfo id="0LUtoFR.1" depart="238.00" departLane="-30706#0_0" departPos="4.60" departPosLat="0.00" departSpeed="13.89" departDelay="0.00" arrival="558.15" arrivalLane="-31366#3_2" arrivalPos="20.69" arrivalPosLat="0.00" arrivalSpeed="36.87" duration="320.15" routeLength="8111.50" waitingTime="0.00" waitingCount="0" stopTime="0.00" timeLoss="18.33" rerouteNo="0" devices="tripinfo_0LUtoFR.1 routing_0LUtoFR.1" vType="passenger2a" speedFactor="1.02" vaporized=""/>
    <tripinfo id="0DEtoFR.0" depart="0.00" departLane="-31622#0_0" departPos="5.10" departPosLat="0.00" departSpeed="13.89" departDelay="0.00" arrival="568.55" arrivalLane="-31366#3_1" arrivalPos="20.69" arrivalPosLat="-0.00" arrivalSpeed="30.00" duration="568.55" routeLength="15900.65" waitingTime="0.00" waitingCount="0" stopTime="0.00" timeLoss="5.28" rerouteNo="0" devices="tripinfo_0DEtoFR.0 routing_0DEtoFR.0" vType="passenger1" speedFactor="0.83" vaporized=""/>
    <tripinfo id="0FRtoBE.2" depart="267.00" departLane="-32426#0_0" departPos="5.10" departPosLat="0.00" departSpeed="13.89" departDelay="0.00" arrival="573.00" arrivalLane="-31622#16_2" arrivalPos="305.81" arrivalPosLat="-0.00" arrivalSpeed="36.45" duration="306.00" routeLength="9591.82" waitingTime="0.00" waitingCount="0" stopTime="0.00" timeLoss="9.93" rerouteNo="0" devices="tripinfo_0FRtoBE.2 routing_0FRtoBE.2" vType="passenger1" speedFactor="1.01" vaporized=""/>
    <tripinfo id="0LUtoFR.2" depart="289.00" departLane="-30706#0_0" departPos="4.60" departPosLat="0.00" departSpeed="13.89" departDelay="0.00" arrival="577.55" arrivalLane="-31366#3_1" arrivalPos="20.69" arrivalPosLat="0.00" arrivalSpeed="40.46" duration="288.55" routeLength="8111.50" waitingTime="0.00" waitingCount="0" stopTime="0.00" timeLoss="13.54" rerouteNo="0" devices="tripinfo_0LUtoFR.2 routing_0LUtoFR.2" vType="passenger2a" speedFactor="1.12" vaporized=""/>
    <tripinfo id="0BEtoLU.0" depart="237.00" departLane="-30668#0_0" departPos="5.10" departPosLat="0.00" departSpeed="13.89" departDelay="0.00" arrival="582.80" arrivalLane="-32400#5_0" arrivalPos="257.03" arrivalPosLat="-0.00" arrivalSpeed="36.35" duration="345.80" routeLength="10745.68" waitingTime="0.00" waitingCount="0" stopTime="0.00" timeLoss="6.74" rerouteNo="0" devices="tripinfo_0BEtoLU.0 routing_0BEtoLU.0" vType="passenger1" speedFactor="1.01" vaporized=""/>
    <tripinfo id="CNA____NBNA_0" depart="2.00" departLane="-32278#1_0" departPos="0.00" departPosLat="0.00" departSpeed="0.00" departDelay="0.00" arrival="590.40" arrivalLane="--32924#0_0" arrivalPos="360.91" arrivalPosLat="0.00" arrivalSpeed="14.69" duration="588.40" routeLength="5754.48" waitingTime="28.90" waitingCount="4" stopTime="120.00" timeLoss="86.61" rerouteNo="0" devices="tripinfo_CNA____NBNA_0" vType="bus" speedFactor="1.06" vaporized=""/>
    <tripinfo id="randUni1854:1" depart="25.00" departLane="--30988#2_0" departPos="27.42" departPosLat="0.00" departSpeed="0.00" departDelay="0.00" arrival="595.75" arrivalLane="-31768#8_0" arrivalPos="4.82" arrivalPosLat="-0.00" arrivalSpeed="0.99" duration="570.75" routeLength="6751.66" waitingTime="26.60" waitingCount="8" stopTime="0.00" timeLoss="88.84" rerouteNo="1" devices="tripinfo_randUni1854:1 routing_randUni1854:1" vType="passenger5" speedFactor="0.97" vaporized=""/>
    <tripinfo id="0BEtoFR.4" depart="302.00" departLane="-30668#0_0" departPos="5.10" departPosLat="0.00" departSpeed="13.89" departDelay="0.00" arrival="598.85" arrivalLane="-31366#3_1" arrivalPos="20.69" arrivalPosLat="-0.00" arrivalSpeed="34.52" duration="296.85" routeLength="9435.02" waitingTime="0.00" waitingCount="0" stopTime="0.00" timeLoss="6.16" rerouteNo="0" devices="tripinfo_0BEtoFR.4 routing_0BEtoFR.4" vType="passenger1" speedFactor="0.96" vaporized=""/>
    <tripinfo id="0DEtoLU.3" depart="265.00" departLane="-31622#0_0" departPos="5.10" departPosLat="0.00" departSpeed="13.89" departDelay="0.00" arrival="606.05" arrivalLane="-32400#5_1" arrivalPos="257.03" arrivalPosLat="-0.00" arrivalSpeed="38.13" duration="341.05" routeLength="11353.72" waitingTime="0.00" waitingCount="0" stopTime="0.00" timeLoss="7.08" rerouteNo="0" devices="tripinfo_0DEtoLU.3" vType="passenger1" speedFactor="1.06" vaporized=""/>
    <tripinfo id="0BEtoLU.2" depart="292.00" departLane="-30668#0_0" departPos="6.10" departPosLat="0.00" departSpeed="13.89" departDelay="0.00" arrival="611.85" arrivalLane="-32400#5_0" arrivalPos="257.03" arrivalPosLat="-0.00" arrivalSpeed="39.60" duration="319.85" routeLength="10744.68" waitingTime="0.00" waitingCount="0" stopTime="0.00" timeLoss="8.67" rerouteNo="0" devices="tripinfo_0BEtoLU.2 routing_0BEtoLU.2" vType="passenger3" speedFactor="1.10" vaporized=""/>
    <tripinfo id="randUni918:1" depart="293.00" departLane="-32740#3_0" departPos="39.86" departPosLat="0.00" departSpeed="0.00" departDelay="0.00" arrival="613.95" arrivalLane="-30658_0" arrivalPos="7.61" arrivalPosLat="-0.00" arrivalSpeed="0.86" duration="320.95" routeLength="3758.63" waitingTime="9.85" waitingCount="6" stopTime="0.00" timeLoss="44.53" rerouteNo="0" devices="tripinfo_randUni918:1 routing_randUni918:1" vType="passenger2a" speedFactor="0.96" vaporized=""/>
    <tripinfo id="randUni4383:1" depart="479.00" departLane="--30872#10_0" departPos="20.80" departPosLat="0.00" departSpeed="0.00" departDelay="0.00" arrival="615.65" arrivalLane="-32716#0_0" arrivalPos="40.08" arrivalPosLat="0.00" arrivalSpeed="0.96" duration="136.65" routeLength="1824.24" waitingTime="5.75" waitingCount="1" stopTime="0.00" timeLoss="27.52" rerouteNo="0" devices="tripinfo_randUni4383:1 routing_randUni4383:1" vType="passenger2b" speedFactor="1.12" vaporized=""/>
    <tripinfo id="0DEtoFR.4" depart="154.00" departLane="-31622#0_0" departPos="4.60" departPosLat="0.00" departSpeed="13.89" departDelay="0.00" arrival="620.55" arrivalLane="-31366#3_1" arrivalPos="20.69" arrivalPosLat="-0.00" arrivalSpeed="36.89" duration="466.55" routeLength="15901.15" waitingTime="0.00" waitingCount="0" stopTime="0.00" timeLoss="9.25" rerouteNo="0" devices="tripinfo_0DEtoFR.4 routing_0DEtoFR.4" vType="passenger2a" speedFactor="1.02" vaporized=""/>
    <tripinfo id="randUni5299:1" depart="37.00" departLane="--32326#1_0" departPos="20.62" departPosLat="0.00" departSpeed="0.00" departDelay="0.00" arrival="632.75" arrivalLane="-32902#1_0" arrivalPos="0.48" arrivalPosLat="-0.00" arrivalSpeed="0.95" duration="595.75" routeLength="5731.71" waitingTime="45.35" waitingCount="7" stopTime="0.00" timeLoss="96.00" rerouteNo="0" devices="tripinfo_randUni5299:1" vType="passenger1" speedFactor="0.83" vaporized=""/>
    <tripinfo id="0FRtoLU.7" depart="379.00" departLane="-32426#0_0" departPos="7.10" departPosLat="0.00" departSpeed="13.89" departDelay="0.00" arrival="635.25" arrivalLane="-32400#5_0" arrivalPos="257.03" arrivalPosLat="-0.00" arrivalSpeed="29.98" duration="256.25" routeLength="6505.94" waitingTime="0.00" waitingCount="0" stopTime="0.00" timeLoss="5.36" rerouteNo="0" devices="tripinfo_0FRtoLU.7" vType="passenger5" speedFactor="1.10" vaporized=""/>
    <tripinfo id="0LUtoDE.3" depart="303.00" departLane="-30706#0_0" departPos="4.60" departPosLat="0.00" departSpeed="13.89" departDelay="0.00" arrival="640.75" arrivalLane="-30668#16_1" arrivalPos="272.49" arrivalPosLat="-0.00" arrivalSpeed="34.90" duration="337.75" routeLength="10512.30" waitingTime="0.00" waitingCount="0" stopTime="0.00" timeLoss="5.94" rerouteNo="0" devices="tripinfo_0LUtoDE.3" vType="passenger2b" speedFactor="0.97" vaporized=""/>
    <tripinfo id="randUni15799:1" depart="116.00" departLane="--31394#0_0" departPos="22.10" departPosLat="0.00" departSpeed="0.00" departDelay="0.00" arrival="645.10" arrivalLane="--31562#1_0" arrivalPos="64.23" arrivalPosLat="-0.00" arrivalSpeed="0.95" duration="529.10" routeLength="6420.49" waitingTime="32.85" waitingCount="9" stopTime="0.00" timeLoss="104.29" rerouteNo="0" devices="tripinfo_randUni15799:1" vType="passenger2b" speedFactor="1.01" vaporized=""/>
    <tripinfo id="0FRtoBE.3" depart="344.00" departLane="-32426#0_0" departPos="4.60" departPosLat="0.00" departSpeed="13.89" departDelay="0.00" arrival="647.80" arrivalLane="-31622#16_2" arrivalPos="305.81" arrivalPosLat="-0.00" arrivalSpeed="36.61" duration="303.80" routeLength="9592.32" waitingTime="0.00" waitingCount="0" stopTime="0.00" timeLoss="8.94" rerouteNo="0" devices="tripinfo_0FRtoBE.3 routing_0FRtoBE.3" vType="passenger2a" speedFactor="1.01" vaporized=""/>